<VTKFile type="PolyData" version="1.0" byte_order="LittleEndian" header_type="UInt64">
  <PolyData>
    <Piece NumberOfPoints="187" NumberOfVerts="0" NumberOfLines="0" NumberOfStrips="0" NumberOfPolys="10">
      <PointData>
        <DataArray type="Float64" Name="FractureSize" format="ascii" RangeMin="0.564112" RangeMax="0.92519">
          0.564112 0.564112 0.564112 0.564112 0.564112 0.564112
          0.564112 0.564112 0.564112 0.564112 0.564112 0.564112
          0.564112 0.564112 0.564112 0.564112 0.564112 0.564112
          0.564112 0.564112 0.83701 0.83701 0.83701 0.83701
          0.83701 0.83701 0.83701 0.83701 0.83701 0.83701
          0.83701 0.83701 0.83701 0.83701 0.83701 0.750456
          0.750456 0.750456 0.750456 0.750456 0.750456 0.750456
          0.750456 0.750456 0.750456 0.750456 0.750456 0.750456
          0.750456 0.750456 0.750456 0.750456 0.750456 0.750456
          0.750456 0.619334 0.619334 0.619334 0.619334 0.619334
          0.619334 0.619334 0.619334 0.619334 0.619334 0.619334
          0.619334 0.619334 0.619334 0.619334 0.619334 0.619334
          0.619334 0.799348 0.799348 0.799348 0.799348 0.799348
          0.799348 0.799348 0.799348 0.799348 0.799348 0.799348
          0.799348 0.799348 0.799348 0.799348 0.799348 0.799348
          0.92519 0.92519 0.92519 0.92519 0.92519 0.92519
          0.92519 0.92519 0.92519 0.92519 0.92519 0.92519
          0.92519 0.92519 0.92519 0.92519 0.92519 0.92519
          0.92519 0.92519 0.92519 0.680756 0.680756 0.680756
          0.680756 0.680756 0.680756 0.680756 0.680756 0.680756
          0.680756 0.680756 0.680756 0.680756 0.680756 0.680756
          0.680756 0.680756 0.641422 0.641422 0.641422 0.641422
          0.641422 0.641422 0.641422 0.641422 0.641422 0.641422
          0.641422 0.641422 0.641422 0.641422 0.641422 0.641422
          0.641422 0.641422 0.641422 0.641422 0.574492 0.574492
          0.574492 0.574492 0.574492 0.574492 0.574492 0.574492
          0.574492 0.574492 0.574492 0.574492 0.574492 0.574492
          0.574492 0.574492 0.574492 0.574492 0.574492 0.574492
          0.6661 0.6661 0.6661 0.6661 0.6661 0.6661
          0.6661 0.6661 0.6661 0.6661 0.6661 0.6661
          0.6661 0.6661 0.6661 0.6661 0.6661 0.6661
          0.6661
        </DataArray>
      </PointData>
      <CellData>
        <DataArray type="Float64" Name="FractureId" format="ascii" RangeMin="0" RangeMax="9">
          0 1 2 3 4 5
          6 7 8 9
        </DataArray>
        <DataArray type="Float64" Name="FractureSize" format="ascii" RangeMin="0.564112" RangeMax="0.92519">
          0.564112 0.83701 0.750456 0.619334 0.799348 0.92519
          0.680756 0.641422 0.574492 0.6661
        </DataArray>
        <DataArray type="Float64" Name="FractureArea" format="ascii" RangeMin="0.24419258172" RangeMax="0.66024196251">
          0.24419258172 0.45678653274 0.43035598875 0.28552159421 0.45616085032 0.66024196251
          0.32405527741 0.32313022619 0.25921364085 0.33628819001
        </DataArray>
      </CellData>
      <Points>
        <DataArray type="Float32" Name="Points" NumberOfComponents="3" format="ascii" RangeMin="0.043877850404" RangeMax="0.72255246909">
          0.10124772787 -0.17071987689 -0.050335709006 0.036938954145 -0.11271964759 -0.033370748162
          -0.0070751053281 -0.037012461573 -0.022478574887 -0.026486048475 0.048990931362 -0.018725385889
          -0.019393796101 0.13687191904 -0.022478574887 0.013507412747 0.21802811325 -0.033370748162
          0.068996973336 0.28451535106 -0.050335709006 0.14164319634 0.32982543111 -0.071712806821
          0.22433494031 0.34952303767 -0.095409497619 0.30897778273 0.3416801095 -0.11910619587
          0.38728627563 0.30706429482 -0.14048328996 0.45159503818 0.24906405807 -0.15744824708
          0.49560910463 0.17335686088 -0.16834042966 0.5 0.15390227735 -0.16918942332
          0.5 -0.020082721487 -0.16571587324 0.47502657771 -0.081683710217 -0.15744824708
          0.41953703761 -0.14817094803 -0.14048328996 0.34689080715 -0.19348101318 -0.11910619587
          0.26419904828 -0.21317864954 -0.095409497619 0.17955622077 -0.20533569157 -0.071712806821
          -0.25567311049 -0.42350029945 0.1224379763 -0.37234032154 -0.45579767227 0.072536088526
          -0.47761881351 -0.46026599407 -0.0051879347302 -0.5 -0.4538936317 -0.031412519515
          -0.5 -0.10021393001 -0.5 -0.14919291437 0.11015578359 -0.5
          -0.1396496743 0.11279767007 -0.49591809511 -0.034371171147 0.11726599187 -0.41819405556
          0.049213249236 0.093467883766 -0.3202560842 0.10292176157 0.043732877821 -0.21169100702
          0.12149700522 -0.027070624754 -0.10312591493 0.10312069207 -0.11201187968 -0.0051879347302
          0.049591641873 -0.20277625322 0.072536088526 -0.033850364387 -0.29047906399 0.1224379763
          -0.13903743029 -0.36653539538 0.1396329999 0.38348373771 0.43064713478 0.29110559821
          0.44140905142 0.37443941832 0.37635493279 0.48538070917 0.28916636109 0.44400918484
          0.5 0.22890591621 0.46870476007 0.5 -0.046424500644 0.48770874739
          0.49971339107 -0.048449166119 0.4874458909 0.46373277903 -0.15140908957 0.44400918484
          0.41161322594 -0.23196065426 0.37635493279 0.34845662117 -0.28221893311 0.29110559821
          0.28044515848 -0.29726424813 0.1966059953 0.21423627436 -0.27562391758 0.10210638493
          0.15631093085 -0.21941623092 0.016857055947 0.11233929545 -0.13414315879 -0.050797197968
          0.086625605822 -0.02815185301 -0.094233900309 0.081686891615 0.088182531297 -0.1092011705
          0.098006598651 0.20347236097 -0.094233900309 0.13398723304 0.30643227696 -0.050797197968
          0.18610677123 0.38698384166 0.016857055947 0.249263376 0.4372421205 0.10210638493
          0.31727483869 0.45228746533 0.1966059953 0.16395886242 0.5 0.085793748498
          0.16544640064 0.47402250767 0.13042369485 0.15486447513 0.40428987145 0.19684749842
          0.13194674253 0.32036864758 0.23949420452 0.098936520517 0.23047359288 0.25418925285
          0.059065099806 0.14340429008 0.23949420452 0.016235370189 0.067683681846 0.19684749842
          -0.025360198691 0.010723819956 0.13042369485 -0.061649940908 -0.021899657324 0.046724818647
          -0.089081563056 -0.026993338019 -0.046056099236 -0.10496987402 -0.0040586204268 -0.13883702457
          -0.10775960237 0.044659487903 -0.22253589332 -0.097177684307 0.11439211667 -0.28895971179
          -0.07425993681 0.19831335545 -0.33160641789 -0.041249722242 0.28820839524 -0.34630146623
          -0.0013783015311 0.37527769804 -0.33160641789 0.041451428086 0.45099833608 -0.28895971179
          0.07723544538 0.5 -0.23181633651 -0.42533129454 0.27947485447 -0.24539799988
          -0.3947724998 0.3865236938 -0.18844975531 -0.32828325033 0.47913208604 -0.13707600534
          -0.2993195951 0.5 -0.12476400286 0.23566123843 0.5 -0.096613042057
          0.31507858634 0.41364562511 -0.13707600534 0.36154469848 0.30953976512 -0.18844975531
          0.36990767717 0.19852915406 -0.24539799988 0.33934888244 0.091480307281 -0.30234622955
          0.27285963297 -0.0011280863546 -0.35371997952 0.17694836855 -0.070230871439 -0.39449042082
          0.061003532261 -0.10906378925 -0.42066666484 -0.063625380397 -0.11382560432 -0.42968636751
          -0.18473882973 -0.084050193429 -0.42066666484 -0.29048135877 -0.022652179003 -0.39449042082
          -0.3705022037 0.064358368516 -0.35371997952 -0.41696831584 0.16846424341 -0.30234622955
          -0.31526201963 0.49784564972 0.083857126534 -0.24844565988 0.4792098999 0.21088278294
          -0.15394309163 0.43614920974 0.31169092655 -0.04100491479 0.37287867069 0.37641373277
          0.079313710332 0.29559162259 0.39871567488 0.19523514807 0.21185345948 0.37641373277
          0.29541221261 0.12986107171 0.31169092655 0.370038867 0.057640444487 0.21088278294
          0.41181012988 0.0022610297892 0.083857126534 0.41663715243 -0.030856249854 -0.056951899081
          0.38404741883 -0.038469642401 -0.1977609247 0.31723105907 -0.019833898172 -0.32478657365
          0.22272849083 0.023226788267 -0.42559471726 0.10979031771 0.086497336626 -0.49031752348
          0.057553574443 0.1200517714 -0.5 -0.076122067869 0.21116733551 -0.5
          -0.12644974887 0.24752253294 -0.49031752348 -0.22662681341 0.32951492071 -0.42559471726
          -0.3012534678 0.4017355442 -0.32478657365 -0.34302473068 0.45711496472 -0.1977609247
          -0.34785175323 0.49023225904 -0.056951899081 0.080830968916 -0.3949316144 0.17231740057
          0.063032403588 -0.42322227359 0.27342998981 0.02962828055 -0.42207500339 0.37454259396
          -0.016111562029 -0.39160203934 0.46575757861 -0.041465446353 -0.3647261858 0.5
          -0.26605156064 0.058928102255 0.5 -0.27406534553 0.094996243715 0.46575757861
          -0.2736145556 0.1499556005 0.37454259396 -0.25581601262 0.17824627459 0.27342998981
          -0.22241188586 0.17709898949 0.17231740057 -0.17667204142 0.14662604034 0.081102415919
          -0.12307380885 0.089810334146 0.0087137902156 -0.066863752902 0.01221338287 -0.037762567401
          -0.013544113375 -0.078569076955 -0.053777229041 0.031665820628 -0.17365062237 -0.037762567401
          0.06434058398 -0.26372402906 0.0087137902156 0.081281736493 -0.33997225761 0.081102415919
          -0.35002273321 -0.06683947891 -0.14774768054 -0.36916154623 -0.00033627139055 -0.22040610015
          -0.36551058292 0.081700161099 -0.27806815505 -0.33942717314 0.17123951018 -0.31508946419
          -0.29346457124 0.25951704383 -0.32784613967 -0.23212191463 0.33789154887 -0.31508946419
          -0.16140384972 0.39869117737 -0.27806815505 -0.08823274821 0.43596443534 -0.22040610015
          -0.019771115854 0.44606277347 -0.14774768054 0.037279553711 0.42799767852 -0.067205198109
          0.077334739268 0.38353747129 0.013337278739 0.096473559737 0.31703427434 0.085995696485
          0.092822574079 0.23499783874 0.14365774393 0.066739171743 0.14545848966 0.18067906797
          0.020776567981 0.057180948555 0.19343574345 -0.040566086769 -0.02119355835 0.18067906797
          -0.11128415167 -0.081993184984 0.14365774393 -0.18445524573 -0.11926645041 0.085995696485
          -0.2529168725 -0.12936477363 0.013337278739 -0.30996754766 -0.11129967123 -0.067205198109
          -0.18714781106 -0.19867786765 -0.12636116147 -0.14671301842 -0.20511721075 -0.2063626647
          -0.084362119436 -0.21769179404 -0.26985222101 -0.0061984425411 -0.23517073691 -0.31061503291
          0.080126799643 -0.25584307313 -0.32466095686 0.16616348922 -0.27768525481 -0.31061503291
          0.24348975718 -0.29855918884 -0.26985222101 0.30453637242 -0.316421628 -0.2063626647
          0.34332764149 -0.32952404022 -0.12636116147 0.35606646538 -0.33658391237 -0.037678800523
          0.34150582552 -0.33691012859 0.051003560424 0.30107101798 -0.3304707706 0.13100507855
          0.238720119 -0.31789618731 0.19449463487 0.16055643559 -0.30041727424 0.23525743186
          0.074231207371 -0.27974492311 0.24930334091 -0.011805484071 -0.25790277123 0.23525743186
          -0.089131750166 -0.2370288074 0.19449463487 -0.15017835796 -0.21916638315 0.13100507855
          -0.18896965683 -0.20606395602 0.051003560424 -0.20170845091 -0.19900409877 -0.037678800523
          0.3352971375 -0.1048765704 -0.01928155683 0.26648649573 -0.13583140075 0.052584595978
          0.17772909999 -0.1650030762 0.098725512624 0.077713109553 -0.18953609467 0.11462458223
          -0.02377120778 -0.20702895522 0.098725512624 -0.11678986251 -0.21576936543 0.052584595978
          -0.19223752618 -0.21490174532 -0.01928155683 -0.24272887409 -0.20451101661 -0.10983819515
          -0.26332145929 -0.18561430275 -0.21022099257 -0.25199952722 -0.1600613296 -0.31060379744
          -0.20987133682 -0.13035343587 -0.40116044879 -0.14106070995 -0.099398598075 -0.47302660346
          -0.089174233377 -0.082345195115 -0.5 0.18783810735 -0.024570167065 -0.5
          0.24221566319 -0.019460633397 -0.47302660346 0.31766334176 -0.020328257233 -0.40116044879
          0.36815467477 -0.030718987808 -0.31060379744 0.38874724507 -0.049615703523 -0.21022099257
          0.377425313 -0.075168661773 -0.10983819515
        </DataArray>
      </Points>
      <Verts>
        <DataArray type="Int64" Name="connectivity" format="ascii" RangeMin="1e+299" RangeMax="-1e+299">
        </DataArray>
        <DataArray type="Int64" Name="offsets" format="ascii" RangeMin="1e+299" RangeMax="-1e+299">
        </DataArray>
      </Verts>
      <Lines>
        <DataArray type="Int64" Name="connectivity" format="ascii" RangeMin="1e+299" RangeMax="-1e+299">
        </DataArray>
        <DataArray type="Int64" Name="offsets" format="ascii" RangeMin="1e+299" RangeMax="-1e+299">
        </DataArray>
      </Lines>
      <Strips>
        <DataArray type="Int64" Name="connectivity" format="ascii" RangeMin="1e+299" RangeMax="-1e+299">
        </DataArray>
        <DataArray type="Int64" Name="offsets" format="ascii" RangeMin="1e+299" RangeMax="-1e+299">
        </DataArray>
      </Strips>
      <Polys>
        <DataArray type="Int64" Name="connectivity" format="ascii" RangeMin="0" RangeMax="186">
          0 1 2 3 4 5
          6 7 8 9 10 11
          12 13 14 15 16 17
          18 19 20 21 22 23
          24 25 26 27 28 29
          30 31 32 33 34 35
          36 37 38 39 40 41
          42 43 44 45 46 47
          48 49 50 51 52 53
          54 55 56 57 58 59
          60 61 62 63 64 65
          66 67 68 69 70 71
          72 73 74 75 76 77
          78 79 80 81 82 83
          84 85 86 87 88 89
          90 91 92 93 94 95
          96 97 98 99 100 101
          102 103 104 105 106 107
          108 109 110 111 112 113
          114 115 116 117 118 119
          120 121 122 123 124 125
          126 127 128 129 130 131
          132 133 134 135 136 137
          138 139 140 141 142 143
          144 145 146 147 148 149
          150 151 152 153 154 155
          156 157 158 159 160 161
          162 163 164 165 166 167
          168 169 170 171 172 173
          174 175 176 177 178 179
          180 181 182 183 184 185
          186
        </DataArray>
        <DataArray type="Int64" Name="offsets" format="ascii" RangeMin="20" RangeMax="187">
          20 35 55 73 90 111
          128 148 168 187
        </DataArray>
      </Polys>
    </Piece>
  </PolyData>
</VTKFile>
