<VTKFile type="PolyData" version="1.0" byte_order="LittleEndian" header_type="UInt64">
  <PolyData>
    <FieldData>
      <Array type="String" Name="MaterialNames" NumberOfTuples="1" format="ascii">
        108 97 109 98 101 114 116 50 83 71 0
      </Array>
      <Array type="String" Name="MaterialLibraries" NumberOfTuples="1" format="ascii">
        84 111 112 72 97 116 46 109 116 108 0
      </Array>
    </FieldData>
    <Piece NumberOfPoints="1480" NumberOfVerts="0" NumberOfLines="0" NumberOfStrips="0" NumberOfPolys="380">
      <PointData Normals="Normals" TCoords="lambert2SG">
        <DataArray type="Float32" Name="lambert2SG" NumberOfComponents="2" format="ascii" RangeMin="0.06542466040221263" RangeMax="1.3110999309118259">
          0.09483200311660767 0.3325420022010803 0.09489800035953522 0.3762870132923126 0.02426999993622303 0.3728260099887848
          0.02626500092446804 0.3323189914226532 0.09489800035953522 0.3762870132923126 0.0950310006737709 0.42558398842811584
          0.02147899940609932 0.4146600067615509 0.02426999993622303 0.3728260099887848 0.0950310006737709 0.42558398842811584
          0.09492000192403793 0.46397799253463745 0.01972300000488758 0.45845499634742737 0.02147899940609932 0.4146600067615509
          0.09492000192403793 0.46397799253463745 0.09483399987220764 0.5050349831581116 0.019153999164700508 0.5030360221862793
          0.01972300000488758 0.45845499634742737 0.09483399987220764 0.5050349831581116 0.09517499804496765 0.5511850118637085
          0.01930299960076809 0.552075982093811 0.019153999164700508 0.5030360221862793 0.09517499804496765 0.5511850118637085
          0.09591999650001526 0.5973230004310608 0.020302999764680862 0.6011059880256653 0.01930299960076809 0.552075982093811
          0.09591999650001526 0.5973230004310608 0.09695900231599808 0.638355016708374 0.02191999927163124 0.6456649899482727
          0.020302999764680862 0.6011059880256653 0.09695900231599808 0.638355016708374 0.09799300134181976 0.6767209768295288
          0.024720000103116035 0.6894130110740662 0.02191999927163124 0.6456649899482727 0.09799300134181976 0.6767209768295288
          0.09899000078439713 0.7246000170707703 0.02850699983537197 0.7311760187149048 0.024720000103116035 0.6894130110740662
          0.09899000078439713 0.7246000170707703 0.10008899867534637 0.7695559859275818 0.03149800002574921 0.7716010212898254
          0.02850699983537197 0.7311760187149048 0.6256710290908813 0.13136599957942963 0.6673610210418701 0.12377700209617615
          0.6673610210418701 0.28335198760032654 0.5880280137062073 0.15430499613285065 0.6256710290908813 0.13136599957942963
          0.6673610210418701 0.28335198760032654 0.557902991771698 0.19030100107192993 0.5880280137062073 0.15430499613285065
          0.6673610210418701 0.28335198760032654 0.5387589931488037 0.23292100429534912 0.557902991771698 0.19030100107192993
          0.6673610210418701 0.28335198760032654 0.532168984413147 0.28334900736808777 0.5387589931488037 0.23292100429534912
          0.6673610210418701 0.28335198760032654 0.5387570261955261 0.3337770104408264 0.532168984413147 0.28334900736808777
          0.6673610210418701 0.28335198760032654 0.5579000115394592 0.3763999938964844 0.5387570261955261 0.3337770104408264
          0.6673610210418701 0.28335198760032654 0.5880230069160461 0.41239601373672485 0.5579000115394592 0.3763999938964844
          0.6673610210418701 0.28335198760032654 0.6256669759750366 0.43533599376678467 0.5880230069160461 0.41239601373672485
          0.6673610210418701 0.28335198760032654 0.6673570275306702 0.44266700744628906 0.6256669759750366 0.43533599376678467
          0.6673610210418701 0.28335198760032654 0.7018030285835266 0.6656249761581421 0.7438380122184753 0.6732329726219177
          0.701803982257843 0.8233609795570374 0.7438380122184753 0.6732329726219177 0.7819200158119202 0.6955159902572632
          0.701803982257843 0.8233609795570374 0.7819200158119202 0.6955159902572632 0.8120790123939514 0.730322003364563
          0.701803982257843 0.8233609795570374 0.8120790123939514 0.730322003364563 0.8313419818878174 0.7728149890899658
          0.701803982257843 0.8233609795570374 0.8313419818878174 0.7728149890899658 0.8379849791526794 0.8233590126037598
          0.701803982257843 0.8233609795570374 0.8379849791526794 0.8233590126037598 0.8313429951667786 0.8739029765129089
          0.701803982257843 0.8233609795570374 0.8313429951667786 0.8739029765129089 0.8120800256729126 0.9163979887962341
          0.701803982257843 0.8233609795570374 0.8120800256729126 0.9163979887962341 0.7819229960441589 0.9512040019035339
          0.701803982257843 0.8233609795570374 0.7819229960441589 0.9512040019035339 0.7438390254974365 0.9734879732131958
          0.701803982257843 0.8233609795570374 0.7438390254974365 0.9734879732131958 0.7018030285835266 0.9808340072631836
          0.701803982257843 0.8233609795570374 0.220878005027771 0.33296999335289 0.22089800238609314 0.3736000061035156
          0.15136300027370453 0.3769719898700714 0.15132200717926025 0.3327310085296631 0.22089800238609314 0.3736000061035156
          0.22105799615383148 0.4142099916934967 0.15168599784374237 0.4245319962501526 0.15136300027370453 0.3769719898700714
          0.22105799615383148 0.4142099916934967 0.2218320071697235 0.4579479992389679 0.1515509933233261 0.46136099100112915
          0.15168599784374237 0.4245319962501526 0.2218320071697235 0.4579479992389679 0.22238999605178833 0.5008959770202637
          0.15156899392604828 0.5028460025787354 0.1515509933233261 0.46136099100112915 0.22238999605178833 0.5008959770202637
          0.22341099381446838 0.5496580004692078 0.15197500586509705 0.5505179762840271 0.15156899392604828 0.5028460025787354
          0.22341099381446838 0.5496580004692078 0.22381600737571716 0.5982789993286133 0.15271900594234467 0.5981990098953247
          0.15197500586509705 0.5505179762840271 0.22381600737571716 0.5982789993286133 0.2235960066318512 0.6405590176582336
          0.15359799563884735 0.6396269798278809 0.15271900594234467 0.5981990098953247 0.2235960066318512 0.6405590176582336
          0.2242940068244934 0.6847959756851196 0.15463900566101074 0.6764770150184631 0.15359799563884735 0.6396269798278809
          0.2242940068244934 0.6847959756851196 0.22530800104141235 0.7255589962005615 0.15547500550746918 0.723222017288208
          0.15463900566101074 0.6764770150184631 0.22530800104141235 0.7255589962005615 0.22616900503635406 0.7659299969673157
          0.15664799511432648 0.7679060101509094 0.15547500550746918 0.723222017288208 0.15132200717926025 0.3327310085296631
          0.15136300027370453 0.3769719898700714 0.09489800035953522 0.3762870132923126 0.09483200311660767 0.3325420022010803
          0.15136300027370453 0.3769719898700714 0.15168599784374237 0.4245319962501526 0.0950310006737709 0.42558398842811584
          0.09489800035953522 0.3762870132923126 0.15168599784374237 0.4245319962501526 0.1515509933233261 0.46136099100112915
          0.09492000192403793 0.46397799253463745 0.0950310006737709 0.42558398842811584 0.1515509933233261 0.46136099100112915
          0.15156899392604828 0.5028460025787354 0.09483399987220764 0.5050349831581116 0.09492000192403793 0.46397799253463745
          0.15156899392604828 0.5028460025787354 0.15197500586509705 0.5505179762840271 0.09517499804496765 0.5511850118637085
          0.09483399987220764 0.5050349831581116 0.15197500586509705 0.5505179762840271 0.15271900594234467 0.5981990098953247
          0.09591999650001526 0.5973230004310608 0.09517499804496765 0.5511850118637085 0.15271900594234467 0.5981990098953247
          0.15359799563884735 0.6396269798278809 0.09695900231599808 0.638355016708374 0.09591999650001526 0.5973230004310608
          0.15359799563884735 0.6396269798278809 0.15463900566101074 0.6764770150184631 0.09799300134181976 0.6767209768295288
          0.09695900231599808 0.638355016708374 0.15463900566101074 0.6764770150184631 0.15547500550746918 0.723222017288208
          0.09899000078439713 0.7246000170707703 0.09799300134181976 0.6767209768295288 0.15547500550746918 0.723222017288208
          0.15664799511432648 0.7679060101509094 0.10008899867534637 0.7695559859275818 0.09899000078439713 0.7246000170707703
          0.3666209876537323 0.31413498520851135 0.37077799439430237 0.36063700914382935 0.3098660111427307 0.36652401089668274
          0.30570200085639954 0.32058900594711304 0.37077799439430237 0.36063700914382935 0.368259996175766 0.40819400548934937
          0.3130210041999817 0.41167500615119934 0.3098660111427307 0.36652401089668274 0.368259996175766 0.40819400548934937
          0.36045101284980774 0.45715799927711487 0.31573399901390076 0.45935800671577454 0.3130210041999817 0.41167500615119934
          0.36045101284980774 0.45715799927711487 0.3568879961967468 0.505806028842926 0.3175550103187561 0.5059599876403809
          0.31573399901390076 0.45935800671577454 0.3568879961967468 0.505806028842926 0.3536739945411682 0.5583500266075134
          0.31848999857902527 0.5584099888801575 0.3175550103187561 0.5059599876403809 0.3536739945411682 0.5583500266075134
          0.3570770025253296 0.6109600067138672 0.3178879916667938 0.6105700135231018 0.31848999857902527 0.5584099888801575
          0.3570770025253296 0.6109600067138672 0.36072298884391785 0.659716010093689 0.31591901183128357 0.6565889716148376
          0.3178879916667938 0.6105700135231018 0.36072298884391785 0.659716010093689 0.3680410087108612 0.7088130116462708
          0.3128829896450043 0.704704999923706 0.31591901183128357 0.6565889716148376 0.3680410087108612 0.7088130116462708
          0.36991700530052185 0.7565569877624512 0.3090989887714386 0.7498700022697449 0.3128829896450043 0.704704999923706
          0.36991700530052185 0.7565569877624512 0.3649959862232208 0.8033080101013184 0.3042370080947876 0.7955549955368042
          0.3090989887714386 0.7498700022697449 0.6673610210418701 0.12377700209617615 0.6256710290908813 0.13136599957942963
          0.6214140057563782 0.12395399808883667 0.6673610210418701 0.11562500149011612 0.30145299434661865 0.3655189871788025
          0.29767000675201416 0.32144299149513245 0.30570200085639954 0.32058900594711304 0.3098660111427307 0.36652401089668274
          0.6256710290908813 0.13136599957942963 0.5880280137062073 0.15430499613285065 0.5806549787521362 0.1486310064792633
          0.6214140057563782 0.12395399808883667 0.3040519952774048 0.41005900502204895 0.30145299434661865 0.3655189871788025
          0.3098660111427307 0.36652401089668274 0.3130210041999817 0.41167500615119934 0.5880280137062073 0.15430499613285065
          0.557902991771698 0.19030100107192993 0.5487750172615051 0.18651999533176422 0.5806549787521362 0.1486310064792633
          0.3060869872570038 0.45841801166534424 0.3040519952774048 0.41005900502204895 0.3130210041999817 0.41167500615119934
          0.31573399901390076 0.45935800671577454 0.557902991771698 0.19030100107192993 0.5387589931488037 0.23292100429534912
          0.5287479758262634 0.2310580015182495 0.5487750172615051 0.18651999533176422 0.30738499760627747 0.5055930018424988
          0.3060869872570038 0.45841801166534424 0.31573399901390076 0.45935800671577454 0.3175550103187561 0.5059599876403809
          0.5387589931488037 0.23292100429534912 0.532168984413147 0.28334900736808777 0.5218740105628967 0.28334900736808777
          0.5287479758262634 0.2310580015182495 0.3082619905471802 0.5583440065383911 0.30738499760627747 0.5055930018424988
          0.3175550103187561 0.5059599876403809 0.31848999857902527 0.5584099888801575 0.532168984413147 0.28334900736808777
          0.5387570261955261 0.3337770104408264 0.5287460088729858 0.335640013217926 0.5218740105628967 0.28334900736808777
          0.3078309893608093 0.6111209988594055 0.3082619905471802 0.5583440065383911 0.31848999857902527 0.5584099888801575
          0.3178879916667938 0.6105700135231018 0.5387570261955261 0.3337770104408264 0.5579000115394592 0.3763999938964844
          0.548770010471344 0.3801800012588501 0.5287460088729858 0.335640013217926 0.3061240017414093 0.6575509905815125
          0.3078309893608093 0.6111209988594055 0.3178879916667938 0.6105700135231018 0.31591901183128357 0.6565889716148376
          0.5579000115394592 0.3763999938964844 0.5880230069160461 0.41239601373672485 0.5806499719619751 0.418069988489151
          0.548770010471344 0.3801800012588501 0.30391401052474976 0.7060189843177795 0.3061240017414093 0.6575509905815125
          0.31591901183128357 0.6565889716148376 0.3128829896450043 0.704704999923706 0.5880230069160461 0.41239601373672485
          0.6256669759750366 0.43533599376678467 0.621408998966217 0.4427480101585388 0.5806499719619751 0.418069988489151
          0.30066201090812683 0.7507039904594421 0.30391401052474976 0.7060189843177795 0.3128829896450043 0.704704999923706
          0.3090989887714386 0.7498700022697449 0.6256669759750366 0.43533599376678467 0.6673570275306702 0.44266700744628906
          0.6673570275306702 0.45186299085617065 0.621408998966217 0.4427480101585388 0.29521599411964417 0.7944009900093079
          0.30066201090812683 0.7507039904594421 0.3090989887714386 0.7498700022697449 0.3042370080947876 0.7955549955368042
          0.7478160262107849 0.5227230191230774 0.7043179869651794 0.5102400183677673 0.7044010162353516 0.48288801312446594
          0.7529609799385071 0.4960309863090515 0.701259970664978 0.04640699923038483 0.6562299728393555 0.058699000626802444
          0.6520010232925415 0.03320999816060066 0.7002559900283813 0.020277999341487885 0.805374026298523 0.5530520081520081
          0.7478160262107849 0.5227230191230774 0.7529609799385071 0.4960309863090515 0.8255969882011414 0.5264610052108765
          0.6562299728393555 0.058699000626802444 0.5978320240974426 0.08820699900388718 0.5792359709739685 0.06253200024366379
          0.6520010232925415 0.03320999816060066 0.8483629822731018 0.5882830023765564 0.805374026298523 0.5530520081520081
          0.8255969882011414 0.5264610052108765 0.874439001083374 0.5643280148506165 0.5978320240974426 0.08820699900388718
          0.5528389811515808 0.12192600220441818 0.5273569822311401 0.09743800014257431 0.5792359709739685 0.06253200024366379
          0.8823369741439819 0.6359050273895264 0.8483629822731018 0.5882830023765564 0.874439001083374 0.5643280148506165
          0.9143800139427185 0.618698000907898 0.5528389811515808 0.12192600220441818 0.5166239738464355 0.16864700615406036
          0.4927999973297119 0.1535789966583252 0.5273569822311401 0.09743800014257431 0.9071930050849915 0.6948080062866211
          0.8823369741439819 0.6359050273895264 0.9143800139427185 0.618698000907898 0.9432979822158813 0.6837520003318787
          0.5166239738464355 0.16864700615406036 0.49095600843429565 0.22727400064468384 0.46207600831985474 0.21751299500465393
          0.4927999973297119 0.1535789966583252 0.9201509952545166 0.75723797082901 0.9071930050849915 0.6948080062866211
          0.9432979822158813 0.6837520003318787 0.9577980041503906 0.7558509707450867 0.49095600843429565 0.22727400064468384
          0.4755550026893616 0.2892880141735077 0.44568800926208496 0.28891900181770325 0.46207600831985474 0.21751299500465393
          0.9196289777755737 0.8153679966926575 0.9201509952545166 0.75723797082901 0.9577980041503906 0.7558509707450867
          0.9594290256500244 0.8203610181808472 0.4755550026893616 0.2892880141735077 0.4760409891605377 0.34800300002098083
          0.4388189911842346 0.3523460030555725 0.44568800926208496 0.28891900181770325 0.904604971408844 0.8682559728622437
          0.9196289777755737 0.8153679966926575 0.9594290256500244 0.8203610181808472 0.9395020008087158 0.8795580267906189
          0.4760409891605377 0.34800300002098083 0.49066299200057983 0.4012799859046936 0.45766299962997437 0.4116100072860718
          0.4388189911842346 0.3523460030555725 0.8741940259933472 0.9253029823303223 0.904604971408844 0.8682559728622437
          0.9395020008087158 0.8795580267906189 0.8927170038223267 0.9437950253486633 0.49066299200057983 0.4012799859046936
          0.5205320119857788 0.4588949978351593 0.5033400058746338 0.4763199985027313 0.45766299962997437 0.4116100072860718
          0.8442019820213318 0.9592329859733582 0.8741940259933472 0.9253029823303223 0.8927170038223267 0.9437950253486633
          0.8564730286598206 0.9768800139427185 0.5205320119857788 0.4588949978351593 0.5501570105552673 0.49333399534225464
          0.5385140180587769 0.5102750062942505 0.5033400058746338 0.4763199985027313 0.7002760171890259 0.08849799633026123
          0.6519380211830139 0.09584300220012665 0.6562299728393555 0.058699000626802444 0.701259970664978 0.04640699923038483
          0.6519380211830139 0.09584300220012665 0.6061869859695435 0.11544899642467499 0.5978320240974426 0.08820699900388718
          0.6562299728393555 0.058699000626802444 0.6061869859695435 0.11544899642467499 0.5645380020141602 0.14573100209236145
          0.5528389811515808 0.12192600220441818 0.5978320240974426 0.08820699900388718 0.5645380020141602 0.14573100209236145
          0.5321609973907471 0.18457399308681488 0.5166239738464355 0.16864700615406036 0.5528389811515808 0.12192600220441818
          0.5321609973907471 0.18457399308681488 0.5081610083580017 0.2330539971590042 0.49095600843429565 0.22727400064468384
          0.5166239738464355 0.16864700615406036 0.5081610083580017 0.2330539971590042 0.4973909854888916 0.2858630120754242
          0.4755550026893616 0.2892880141735077 0.49095600843429565 0.22727400064468384 0.4973909854888916 0.2858630120754242
          0.49928000569343567 0.3358590006828308 0.4760409891605377 0.34800300002098083 0.4755550026893616 0.2892880141735077
          0.49928000569343567 0.3358590006828308 0.5134339928627014 0.38433799147605896 0.49066299200057983 0.4012799859046936
          0.4760409891605377 0.34800300002098083 0.5134339928627014 0.38433799147605896 0.5379769802093506 0.4259519875049591
          0.5205320119857788 0.4588949978351593 0.49066299200057983 0.4012799859046936 0.5379769802093506 0.4259519875049591
          0.5722119808197021 0.45827600359916687 0.5501570105552673 0.49333399534225464 0.5205320119857788 0.4588949978351593
          0.8229900002479553 0.9241819977760315 0.8577920198440552 0.8924430012702942 0.8741940259933472 0.9253029823303223
          0.8442019820213318 0.9592329859733582 0.8577920198440552 0.8924430012702942 0.8826289772987366 0.8510050177574158
          0.904604971408844 0.8682559728622437 0.8741940259933472 0.9253029823303223 0.8826289772987366 0.8510050177574158
          0.8965020179748535 0.8026790022850037 0.9196289777755737 0.8153679966926575 0.904604971408844 0.8682559728622437
          0.8965020179748535 0.8026790022850037 0.8982710242271423 0.7528979778289795 0.9201509952545166 0.75723797082901
          0.9196289777755737 0.8153679966926575 0.8982710242271423 0.7528979778289795 0.8895120024681091 0.7002509832382202
          0.9071930050849915 0.6948080062866211 0.9201509952545166 0.75723797082901 0.8895120024681091 0.7002509832382202
          0.8667330145835876 0.651885986328125 0.8823369741439819 0.6359050273895264 0.9071930050849915 0.6948080062866211
          0.8667330145835876 0.651885986328125 0.8364980220794678 0.6118670105934143 0.8483629822731018 0.5882830023765564
          0.8823369741439819 0.6359050273895264 0.8364980220794678 0.6118670105934143 0.7969290018081665 0.5797929763793945
          0.805374026298523 0.5530520081520081 0.8483629822731018 0.5882830023765564 0.7969290018081665 0.5797929763793945
          0.7520660161972046 0.5593119859695435 0.7478160262107849 0.5227230191230774 0.805374026298523 0.5530520081520081
          0.7520660161972046 0.5593119859695435 0.7041950225830078 0.5518770217895508 0.7043179869651794 0.5102400183677673
          0.7478160262107849 0.5227230191230774 0.7529609799385071 0.4960309863090515 0.7044010162353516 0.48288801312446594
          0.7044230103492737 0.47582098841667175 0.7539600133895874 0.4856429994106293 0.8255969882011414 0.5264610052108765
          0.7529609799385071 0.4960309863090515 0.7539600133895874 0.4856429994106293 0.8335620164871216 0.5175380110740662
          0.874439001083374 0.5643280148506165 0.8255969882011414 0.5264610052108765 0.8335620164871216 0.5175380110740662
          0.8837090134620667 0.5551720261573792 0.9143800139427185 0.618698000907898 0.874439001083374 0.5643280148506165
          0.8837090134620667 0.5551720261573792 0.924344003200531 0.6111080050468445 0.9432979822158813 0.6837520003318787
          0.9143800139427185 0.618698000907898 0.924344003200531 0.6111080050468445 0.9547370076179504 0.6802700161933899
          0.9577980041503906 0.7558509707450867 0.9432979822158813 0.6837520003318787 0.9547370076179504 0.6802700161933899
          0.9695209860801697 0.7555509805679321 0.9594290256500244 0.8203610181808472 0.9577980041503906 0.7558509707450867
          0.9695209860801697 0.7555509805679321 0.9693250060081482 0.8194959759712219 0.9395020008087158 0.8795580267906189
          0.9594290256500244 0.8203610181808472 0.9693250060081482 0.8194959759712219 0.9466639757156372 0.8807309865951538
          0.8927170038223267 0.9437950253486633 0.9395020008087158 0.8795580267906189 0.9466639757156372 0.8807309865951538
          0.8980380296707153 0.9480199813842773 0.8564730286598206 0.9768800139427185 0.8927170038223267 0.9437950253486633
          0.8980380296707153 0.9480199813842773 0.8599179983139038 0.9815319776535034 0.5033400058746338 0.4763199985027313
          0.5385140180587769 0.5102750062942505 0.5348590016365051 0.5150039792060852 0.49797800183296204 0.4803760051727295
          0.45766299962997437 0.4116100072860718 0.5033400058746338 0.4763199985027313 0.49797800183296204 0.4803760051727295
          0.4504530131816864 0.4126580059528351 0.4388189911842346 0.3523460030555725 0.45766299962997437 0.4116100072860718
          0.4504530131816864 0.4126580059528351 0.4289819896221161 0.35133400559425354 0.44568800926208496 0.28891900181770325
          0.4388189911842346 0.3523460030555725 0.4289819896221161 0.35133400559425354 0.4339829981327057 0.2884030044078827
          0.46207600831985474 0.21751299500465393 0.44568800926208496 0.28891900181770325 0.4339829981327057 0.2884030044078827
          0.4506399929523468 0.21376100182533264 0.4927999973297119 0.1535789966583252 0.46207600831985474 0.21751299500465393
          0.4506399929523468 0.21376100182533264 0.48304399847984314 0.14578500390052795 0.5273569822311401 0.09743800014257431
          0.4927999973297119 0.1535789966583252 0.48304399847984314 0.14578500390052795 0.5198360085487366 0.08904699981212616
          0.5792359709739685 0.06253200024366379 0.5273569822311401 0.09743800014257431 0.5198360085487366 0.08904699981212616
          0.571494996547699 0.05346500128507614 0.6520010232925415 0.03320999816060066 0.5792359709739685 0.06253200024366379
          0.571494996547699 0.05346500128507614 0.6511139869689941 0.022735999897122383 0.7002559900283813 0.020277999341487885
          0.6520010232925415 0.03320999816060066 0.6511139869689941 0.022735999897122383 0.7002559900283813 0.013213999569416046
          0.7044370174407959 0.47095000743865967 0.7044429779052734 0.46875 0.7513489723205566 0.47693198919296265
          0.7530080080032349 0.4789290130138397 0.7530080080032349 0.4789290130138397 0.7513489723205566 0.47693198919296265
          0.8374789953231812 0.5110859870910645 0.8372049927711487 0.5124599933624268 0.7002559900283813 0.006713999900966883
          0.7002559900283813 0.008694999851286411 0.6498029828071594 0.017064999788999557 0.6510229706764221 0.014055999927222729
          0.6510229706764221 0.014055999927222729 0.6498029828071594 0.017064999788999557 0.5674620270729065 0.04687799885869026
          0.5663319826126099 0.044443000108003616 0.8372049927711487 0.5124599933624268 0.8374789953231812 0.5110859870910645
          0.887628972530365 0.5476800203323364 0.8874019980430603 0.5491769909858704 0.5663319826126099 0.044443000108003616
          0.5674620270729065 0.04687799885869026 0.5158900022506714 0.08321800082921982 0.5142409801483154 0.08114899694919586
          0.8874019980430603 0.5491769909858704 0.887628972530365 0.5476800203323364 0.928384006023407 0.6048629879951477
          0.9274190068244934 0.6052550077438354 0.5142409801483154 0.08114899694919586 0.5158900022506714 0.08321800082921982
          0.4772680103778839 0.14029400050640106 0.47492900490760803 0.13851499557495117 0.9274190068244934 0.6052550077438354
          0.928384006023407 0.6048629879951477 0.9606000185012817 0.6784250140190125 0.9592599868774414 0.677727997303009
          0.47492900490760803 0.13851499557495117 0.4772680103778839 0.14029400050640106 0.4439440071582794 0.21048200130462646
          0.4408310055732727 0.21052800118923187 0.9592599868774414 0.677727997303009 0.9606000185012817 0.6784250140190125
          0.9759320020675659 0.7572020292282104 0.9745150208473206 0.755299985408783 0.4408310055732727 0.21052800118923187
          0.4439440071582794 0.21048200130462646 0.4268380105495453 0.2879970073699951 0.42394500970840454 0.2883960008621216
          0.9745950102806091 0.7552689909934998 0.9759320020675659 0.7572020292282104 0.974399983882904 0.8199629783630371
          0.973242998123169 0.8181639909744263 0.42394500970840454 0.2883960008621216 0.4268380105495453 0.2879970073699951
          0.42361199855804443 0.3512150049209595 0.4208900034427643 0.35142698884010315 0.973242998123169 0.8181639909744263
          0.974399983882904 0.8199629783630371 0.9500790238380432 0.8837059736251831 0.9494720101356506 0.8810799717903137
          0.4208900034427643 0.35142698884010315 0.42361199855804443 0.3512150049209595 0.44694000482559204 0.413116991519928
          0.4447380006313324 0.41477900743484497 0.9494720101356506 0.8810799717903137 0.9500790238380432 0.8837059736251831
          0.8989480137825012 0.954397976398468 0.8980559706687927 0.9522510170936584 0.4447380006313324 0.41477900743484497
          0.44694000482559204 0.413116991519928 0.49483099579811096 0.4822770059108734 0.4935219883918762 0.4843960106372833
          0.8980559706687927 0.9522510170936584 0.8989480137825012 0.954397976398468 0.862671971321106 0.9861130118370056
          0.8617389798164368 0.9845389723777771 0.4935219883918762 0.4843960106372833 0.49483099579811096 0.4822770059108734
          0.5325160026550293 0.5179499983787537 0.5308229923248291 0.519366979598999 0.6517080068588257 0.010157999582588673
          0.7002549767494202 0.0031250000465661287 0.7002559900283813 0.006713999900966883 0.6510229706764221 0.014055999927222729
          0.5634350180625916 0.04151400178670883 0.6517080068588257 0.010157999582588673 0.6510229706764221 0.014055999927222729
          0.5663319826126099 0.044443000108003616 0.5116559863090515 0.07821600139141083 0.5634350180625916 0.04151400178670883
          0.5663319826126099 0.044443000108003616 0.5142409801483154 0.08114899694919586 0.46758100390434265 0.13440699875354767
          0.5116559863090515 0.07821600139141083 0.5142409801483154 0.08114899694919586 0.47492900490760803 0.13851499557495117
          0.4328179955482483 0.2078240066766739 0.46758100390434265 0.13440699875354767 0.47492900490760803 0.13851499557495117
          0.4408310055732727 0.21052800118923187 0.4156250059604645 0.2872839868068695 0.4328179955482483 0.2078240066766739
          0.4408310055732727 0.21052800118923187 0.42394500970840454 0.2883960008621216 0.4169659912586212 0.35137099027633667
          0.4156250059604645 0.2872839868068695 0.42394500970840454 0.2883960008621216 0.4208900034427643 0.35142698884010315
          0.4431479871273041 0.4154919981956482 0.4169659912586212 0.35137099027633667 0.4208900034427643 0.35142698884010315
          0.4447380006313324 0.41477900743484497 0.4920249879360199 0.4888170063495636 0.4431479871273041 0.4154919981956482
          0.4447380006313324 0.41477900743484497 0.4935219883918762 0.4843960106372833 0.5281919836997986 0.5215259790420532
          0.4920249879360199 0.4888170063495636 0.4935219883918762 0.4843960106372833 0.5308229923248291 0.519366979598999
          0.7539600133895874 0.4856429994106293 0.7044230103492737 0.47582098841667175 0.7044370174407959 0.47095000743865967
          0.7530080080032349 0.4789290130138397 0.8335620164871216 0.5175380110740662 0.7539600133895874 0.4856429994106293
          0.7530080080032349 0.4789290130138397 0.8372049927711487 0.5124599933624268 0.8837090134620667 0.5551720261573792
          0.8335620164871216 0.5175380110740662 0.8372049927711487 0.5124599933624268 0.8874019980430603 0.5491769909858704
          0.924344003200531 0.6111080050468445 0.8837090134620667 0.5551720261573792 0.8874019980430603 0.5491769909858704
          0.9274190068244934 0.6052550077438354 0.9547370076179504 0.6802700161933899 0.924344003200531 0.6111080050468445
          0.9274190068244934 0.6052550077438354 0.9592599868774414 0.677727997303009 0.9695209860801697 0.7555509805679321
          0.9547370076179504 0.6802700161933899 0.9592599868774414 0.677727997303009 0.9745150208473206 0.755299985408783
          0.9693250060081482 0.8194959759712219 0.9695209860801697 0.7555509805679321 0.9745950102806091 0.7552689909934998
          0.973242998123169 0.8181639909744263 0.9466639757156372 0.8807309865951538 0.9693250060081482 0.8194959759712219
          0.973242998123169 0.8181639909744263 0.9494720101356506 0.8810799717903137 0.8980380296707153 0.9480199813842773
          0.9466639757156372 0.8807309865951538 0.9494720101356506 0.8810799717903137 0.8980559706687927 0.9522510170936584
          0.8599179983139038 0.9815319776535034 0.8980380296707153 0.9480199813842773 0.8980559706687927 0.9522510170936584